# vtk DataFile Version 3.0
vtk output
ASCII
DATASET UNSTRUCTURED_GRID
POINTS 5228 float
0.180553 0.0657161 0.996648 0.174762 0.0577397 0.998173 0.179714 0.0572566 0.997321 
0.169313 0.0494136 0.999558 0.188462 0.0559205 0.995781 0.175165 0.0460401 0.998711 
0.184625 0.0461802 0.996998 0.180501 0.0395146 0.99804 0.174373 0.0428509 0.998991 
0.182156 0.0343028 0.997932 0.203475 0.0469762 0.993286 0.190501 0.0522818 0.995591 
0.197045 0.0543612 0.994205 0.19159 0.0570065 0.995122 0.195528 0.0612683 0.994103 
0.205477 0.0497032 0.992741 0.210927 0.0523937 0.991458 0.204301 0.062428 0.992264 
0.211244 0.0555703 0.991218 0.213104 0.0615086 0.990469 0.214202 0.0530691 0.99072 
0.221498 0.0611697 0.988646 0.221498 0.0611697 0.988646 0.226457 0.0691916 0.986993 
0.193821 0.0668452 0.994077 0.190588 0.0693682 0.99453 0.305822 0.168599 0.953033 
0.304202 0.165553 0.954085 0.300868 0.174985 0.953459 0.29354 0.176594 0.955444 
0.292536 0.161971 0.958339 0.302436 0.159826 0.955622 0.292448 0.159143 0.958839 
0.2925 0.15329 0.959777 0.303995 0.155503 0.95584 0.307196 0.153069 0.95521 
0.297581 0.149407 0.958826 0.315116 0.147963 0.953433 0.300924 0.14621 0.958276 
0.302294 0.138656 0.958967 0.320277 0.139194 0.953033 0.320584 0.138486 0.953033 
0.319752 0.126357 0.954996 0.324088 0.130074 0.953033 0.32542 0.126705 0.953033 
0.325316 0.126411 0.953108 0.325554 0.126362 0.953033 0.190588 0.0693682 0.99453 
0.185436 0.0731627 0.995231 0.180553 0.0657161 0.996648 0.123169 0.213335 0.984654 
0.146031 0.216567 0.980815 0.147211 0.226372 0.978422 0.158743 0.227773 0.976291 
0.155747 0.234339 0.975219 0.159787 0.228497 0.975952 0.168796 0.229724 0.974146 
0.16144 0.237965 0.973414 0.171729 0.237005 0.971886 0.161659 0.246054 0.971364 
0.158357 0.238132 0.97388 0.154224 0.243007 0.973338 0.156119 0.23671 0.974587 
0.151836 0.241813 0.974011 0.149493 0.234635 0.976127 0.148119 0.239405 0.975177 
0.148109 0.239411 0.975177 0.143364 0.231391 0.977819 0.140659 0.235537 0.977222 
0.134189 0.232422 0.978876 0.198017 0.272521 0.957469 0.180666 0.284806 0.957325 
0.181135 0.260485 0.964138 0.175028 0.250721 0.967848 0.163301 0.246897 0.970876 
0.169554 0.240446 0.971423 0.177345 0.23703 0.970871 0.178261 0.241885 0.969505 
0.185293 0.240294 0.968582 0.180554 0.245423 0.968191 0.198615 0.248856 0.963768 
0.20035 0.255608 0.961639 0.192293 0.25988 0.962139 0.198031 0.272427 0.957493 
0.198017 0.272521 0.957469 0.0546747 0.310076 0.964929 0.0618861 0.30276 0.966815 
0.067734 0.304612 0.965841 0.0663032 0.311529 0.963732 0.0769924 0.308023 0.964064 
0.0665508 0.327359 0.958453 0.0790293 0.320119 0.95995 0.0788952 0.290958 0.969197 
0.0807424 0.301731 0.965745 0.0951958 0.311539 0.961304 0.0916714 0.326703 0.956602 
0.0957017 0.335848 0.953033 0.103921 0.333396 0.953033 0.0988899 0.319683 0.958253 
0.10133 0.308399 0.96169 0.0894398 0.290343 0.968466 0.0946219 0.284985 0.969564 
0.105389 0.280327 0.969812 0.119061 0.299777 0.962384 0.130634 0.30375 0.959633 
0.137656 0.320941 0.953033 0.134189 0.232422 0.978876 0.124345 0.227276 0.981381 
0.0895942 0.226347 0.985376 0.0841016 0.214676 0.988467 0.102866 0.2184 0.985873 
0.11692 0.212031 0.985697 0.123169 0.213335 0.984654 -0.041484 0.235267 0.986485 
-0.0368422 0.235856 0.986529 -0.0421258 0.242746 0.984645 -0.0372288 0.239747 0.985576 
-0.0248546 0.248875 0.983701 -0.0261571 0.243688 0.984966 -0.0140074 0.244903 0.984912 
-0.0123322 0.248901 0.983932 -0.0178363 0.247907 0.984098 0.0137911 0.261673 0.980593 
0.014158 0.270839 0.978096 0.0190017 0.266221 0.979281 0.013708 0.28401 0.974359 
0.0476808 0.285122 0.972963 0.0490208 0.304384 0.967043 0.0354681 0.319675 0.962692 
0.0387536 0.34706 0.953033 0.0433125 0.346521 0.953033 0.0456661 0.343335 0.954076 
0.0414807 0.330548 0.958771 0.0472246 0.336613 0.956393 0.0375689 0.318065 0.963145 
0.0476075 0.316749 0.963135 0.0546747 0.310076 0.964929 -0.149702 0.259292 0.969836 
-0.148967 0.259607 0.969865 -0.140219 0.259264 0.97126 -0.139844 0.253536 0.972825 
-0.124208 0.258234 0.973711 -0.117756 0.270627 0.971143 -0.109381 0.259635 0.975116 
-0.108874 0.265358 0.973631 -0.103176 0.260966 0.975437 -0.0963498 0.264403 0.975209 
-0.096731 0.270308 0.973551 -0.102963 0.26774 0.973622 -0.0830959 0.283431 0.971075 
-0.0809557 0.291917 0.968739 -0.0842288 0.275208 0.97334 -0.104278 0.238933 0.98095 
-0.0950108 0.231109 0.983762 -0.102102 0.233892 0.982392 -0.101409 0.228466 0.98374 
-0.0841628 0.218192 0.987691 -0.0678605 0.22861 0.986589 -0.0697195 0.220518 0.9883 
-0.055888 0.221404 0.98898 -0.0628785 0.214403 0.990102 -0.0531193 0.210745 0.991458 
-0.0449381 0.223775 0.989005 -0.0461432 0.234587 0.98644 -0.041484 0.235267 0.986485 
-0.248986 0.208924 0.961552 -0.24034 0.215532 0.962293 -0.245267 0.221903 0.959598 
-0.231623 0.223504 0.962612 -0.225339 0.234833 0.961406 -0.214887 0.23222 0.964429 
-0.22158 0.254495 0.957267 -0.19476 0.246555 0.965145 -0.198669 0.240525 0.965869 
-0.190738 0.240281 0.967527 -0.193492 0.235134 0.968245 -0.185024 0.229992 0.97113 
-0.174074 0.237137 0.971437 -0.161119 0.234983 0.974191 -0.163293 0.252973 0.969312 
-0.149702 0.259292 0.969836 -0.19209 0.161183 0.983538 -0.183251 0.16052 0.985331 
-0.185928 0.173454 0.982634 -0.198396 0.178674 0.979255 -0.198416 0.178692 0.979247 
-0.20432 0.171445 0.979329 -0.239106 0.200633 0.965816 -0.24 0.206389 0.96438 
-0.248137 0.208211 0.961926 -0.236739 0.198647 0.966809 -0.235373 0.203714 0.966087 
-0.238186 0.199862 0.966203 -0.201848 0.284974 0.953033 -0.199516 0.277145 0.955829 
-0.204606 0.266186 0.957865 -0.197341 0.259084 0.961331 -0.204908 0.265935 0.957871 
-0.200035 0.276928 0.955783 -0.202335 0.284628 0.953033 -0.327519 0.119207 0.953282 
-0.311925 0.120206 0.958373 -0.302157 0.135022 0.959529 -0.297723 0.15478 0.95793 
-0.274504 0.166056 0.962963 -0.274505 0.158077 0.964305 -0.2639 0.162562 0.966517 
-0.260512 0.168436 0.96643 -0.265785 0.183709 0.962203 -0.256596 0.17636 0.966065 
-0.263484 0.177843 0.963936 -0.259978 0.169193 0.966442 -0.252671 0.18193 0.966066 
-0.259092 0.169139 0.966689 -0.233374 0.189726 0.969415 -0.23858 0.191132 0.96787 
-0.236739 0.198647 0.966809 -0.20432 0.171445 0.979329 -0.21421 0.158005 0.979476 
-0.199435 0.153569 0.983294 -0.211633 0.157155 0.980173 -0.210649 0.145274 0.982216 
-0.190687 0.152333 0.98522 -0.196264 0.161385 0.98268 -0.19209 0.161183 0.983538 
-0.238186 0.199862 0.966203 -0.238826 0.198975 0.966228 -0.239106 0.200633 0.965816 
-0.248137 0.208211 0.961926 -0.249514 0.208501 0.961507 -0.248986 0.208924 0.961552 
-0.345338 0.0519069 0.953033 -0.342505 0.0570084 0.953764 -0.344389 0.0578719 0.953033 
-0.328263 0.119147 0.953033 -0.327519 0.119207 0.953282 -0.3207 -0.116725 0.955904 
-0.31886 -0.115249 0.956698 -0.327298 -0.10682 0.954825 -0.332839 -0.105692 0.953033 
-0.277497 -0.212009 0.953033 -0.278251 -0.207742 0.953753 -0.300855 -0.165397 0.955173 
-0.301937 -0.156482 0.956333 -0.296615 -0.155977 0.958079 -0.302776 -0.146446 0.957656 
-0.299489 -0.139177 0.959771 -0.307541 -0.136939 0.957545 -0.300201 -0.136373 0.959951 
-0.298833 -0.130029 0.961258 -0.309913 -0.126366 0.958233 -0.314924 -0.116756 0.957818 
-0.322944 -0.118539 0.954924 -0.3207 -0.116725 0.955904 -0.138989 -0.240735 0.976193 
-0.141908 -0.232018 0.977883 -0.156975 -0.226413 0.976893 -0.158762 -0.237586 0.973947 
-0.185783 -0.255793 0.96451 -0.18093 -0.259425 0.964462 -0.180826 -0.277376 0.959474 
-0.165163 -0.278919 0.961847 -0.15946 -0.272392 0.964676 -0.15939 -0.272392 0.964688 
-0.156928 -0.271808 0.965256 -0.209511 -0.279388 0.953033 -0.209232 -0.267419 0.956522 
-0.210909 -0.275369 0.953894 -0.215134 -0.275082 0.953033 -0.224444 -0.267539 0.953033 
-0.220187 -0.265518 0.95459 -0.227377 -0.265051 0.953033 -0.197754 -0.28783 0.953033 
-0.196028 -0.284946 0.954256 -0.198988 -0.286978 0.953033 -0.0664603 -0.342835 0.953033 
-0.06592 -0.339731 0.954182 -0.0830348 -0.321396 0.959185 -0.0794728 -0.290882 0.969173 
-0.0846394 -0.281013 0.971645 -0.0925644 -0.280776 0.97099 -0.0982774 -0.306926 0.962477 
-0.101782 -0.281154 0.969958 -0.105903 -0.279866 0.969889 -0.10416 -0.290172 0.967045 
-0.108014 -0.286108 0.967833 -0.111425 -0.290136 0.966246 -0.116664 -0.288175 0.966214 
-0.109588 -0.28274 0.968645 -0.115687 -0.275369 0.970059 -0.126934 -0.278209 0.967839 
-0.121068 -0.265906 0.97204 -0.146486 -0.269816 0.967454 -0.155452 -0.27904 0.96343 
-0.149504 -0.284232 0.962853 -0.154125 -0.287032 0.961293 -0.136882 -0.293049 0.962087 
-0.157409 -0.291975 0.95927 -0.157327 -0.299868 0.956845 -0.136196 -0.308491 0.957345 
-0.12557 -0.31971 0.955114 -0.160217 -0.309553 0.953274 -0.160228 -0.31029 0.953033 
-0.114097 -0.238567 0.979945 -0.104318 -0.233973 0.98214 -0.106806 -0.240828 0.980214 
-0.0931982 -0.242259 0.981249 -0.111478 -0.245455 0.978545 -0.104321 -0.25363 0.977248 
-0.084774 -0.24905 0.980312 -0.0726166 -0.253244 0.980214 -0.0663966 -0.240641 0.983823 
-0.0701289 -0.235693 0.984762 -0.0733412 -0.242291 0.982925 -0.0774962 -0.238509 0.983531 
-0.0762056 -0.219982 0.98794 -0.0840537 -0.225833 0.985982 -0.0828855 -0.242296 0.982165 
-0.0924784 -0.238128 0.982328 -0.100228 -0.215963 0.986681 -0.10574 -0.217774 0.985707 
-0.101751 -0.221958 0.985194 -0.11189 -0.222169 0.984046 -0.104322 -0.22596 0.984014 
-0.116325 -0.226178 0.982617 -0.106661 -0.228652 0.983141 -0.12072 -0.23029 0.981131 
-0.11414 -0.23857 0.97994 -0.114097 -0.238567 0.979945 -0.0494188 -0.280268 0.974286 
-0.0535499 -0.279157 0.974387 -0.0527727 -0.286831 0.972198 -0.0584488 -0.284186 0.972649 
-0.0511226 -0.289931 0.971366 -0.0519467 -0.294605 0.969915 -0.05334 -0.297464 0.968966 
-0.0629072 -0.29027 0.970572 -0.0667194 -0.296395 0.968464 -0.0558087 -0.316507 0.962774 
-0.156928 -0.271808 0.965256 -0.123764 -0.261565 0.972878 -0.128539 -0.245611 0.976411 
-0.137058 -0.245983 0.975158 -0.138989 -0.240735 0.976193 0.0290173 -0.164565 1.00115 
0.0203441 -0.170459 1.00038 0.0302425 -0.182641 0.997974 0.0187424 -0.172051 1.00014 
[...]
CELL_DATA 4863
SCALARS Material%20Id int
LOOKUP_TABLE default
1 1 1 1 1 1 1 1 1 
1 1 1 1 1 1 1 1 1 
1 1 1 1 1 1 1 2 2 
2 2 2 2 2 2 2 2 2 
2 2 2 3 3 4 4 5 5 
6 6 6 6 6 6 6 6 6 
6 6 6 6 6 6 6 6 6 
6 7 7 7 7 7 7 7 7 
7 7 7 7 7 7 8 8 8 
8 8 8 8 8 8 8 8 9 
9 9 9 9 9 9 9 10 10 
10 10 10 10 11 11 11 11 11 
11 11 11 11 11 11 11 11 11 
11 11 12 12 12 12 12 12 13 
13 13 13 13 13 13 13 13 13 
13 13 13 13 13 13 13 13 13 
13 13 13 13 13 13 13 13 14 
14 14 14 14 14 14 14 14 14 
14 14 14 14 14 15 15 15 15 
15 16 16 17 17 18 18 18 18 
18 18 19 19 19 19 19 19 19 
19 19 19 19 19 19 19 19 19 
20 20 20 20 20 20 20 21 21 
22 22 23 23 24 25 25 25 26 
26 26 26 26 26 26 26 26 26 
26 26 26 27 27 27 27 27 27 
27 27 27 27 28 28 28 29 29 
30 30 31 31 31 31 31 31 31 
31 31 31 31 31 31 31 31 31 
31 31 31 31 31 31 31 31 31 
31 31 32 32 32 32 32 32 32 
32 32 32 32 32 32 32 32 32 
32 32 32 32 32 32 32 32 32 
33 33 33 33 34 34 34 34 35 
35 35 35 36 36 36 36 36 36 
36 36 36 36 36 36 36 36 36 
36 36 36 36 36 36 36 36 36 
36 36 36 36 36 36 36 36 36 
36 36 37 37 37 37 37 37 37 
37 37 37 37 37 37 37 37 37 
37 37 37 37 37 37 37 37 37 
38 38 38 38 38 38 38 38 38 
38 38 38 38 38 38 38 38 38 
38 38 38 38 38 38 38 39 39 
39 39 39 39 39 39 39 39 39 
39 39 39 39 39 39 39 39 39 
39 39 40 40 40 40 40 40 40 
40 40 40 40 40 40 40 40 40 
40 40 40 40 41 41 41 41 41 
41 41 41 41 41 42 42 42 42 
42 42 42 42 42 43 43 43 43 
43 43 43 44 44 44 44 44 44 
45 45 45 46 46 47 47 48 48 
49 49 50 50 50 50 50 50 50 
50 50 50 50 50 50 50 50 50 
50 50 50 50 50 50 50 50 50 
50 50 50 50 50 50 51 51 51 
51 51 51 51 51 51 51 51 51 
51 51 51 51 51 51 51 51 51 
51 51 51 51 51 51 51 52 52 
52 52 52 52 52 52 52 52 52 
52 52 52 52 52 52 52 52 52 
52 52 52 52 52 52 53 53 53 
53 54 54 54 55 55 55 56 56 
57 57 58 58 59 59 60 60 60 
60 60 60 60 60 60 60 60 60 
60 60 60 60 60 60 60 60 60 
60 60 60 60 60 60 61 61 61 
61 61 61 61 61 61 61 61 61 
61 61 62 62 62 63 63 63 63 
63 63 63 63 63 63 63 63 63 
63 63 63 63 63 63 63 63 63 
63 63 63 63 63 63 63 63 63 
63 63 63 63 63 63 63 63 63 
63 63 63 63 63 63 63 64 64 
64 64 64 64 64 64 64 64 64 
64 64 64 64 64 64 65 65 65 
65 65 65 66 66 66 66 67 67 
67 68 68 68 69 69 69 70 70 
71 71 72 72 73 73 73 73 73 
74 74 74 75 75 75 76 76 76 
77 77 78 78 79 79 80 80 81 
81 81 81 81 81 81 81 81 81 
81 81 81 81 81 81 81 81 81 
81 81 81 81 81 81 81 81 81 
81 81 81 81 81 81 81 81 81 
81 81 81 81 81 81 81 81 81 
81 81 81 81 81 81 81 81 81 
81 81 81 81 81 81 81 81 81 
81 81 81 81 81 81 81 81 81 
81 81 81 81 81 81 81 81 81 
81 81 81 81 81 81 81 81 81 
81 81 81 81 81 81 81 81 81 
81 81 81 81 81 81 81 81 81 
81 81 81 81 81 81 82 82 82 
82 82 82 82 82 82 82 82 82 
82 82 82 82 82 82 82 82 82 
82 82 82 82 82 82 82 82 82 
82 82 82 82 82 82 82 82 83 
83 83 83 83 83 83 83 83 84 
84 84 85 85 86 86 87 87 88 
88 88 88 88 88 88 88 88 88 
88 88 88 88 88 88 88 88 88 
88 88 88 88 88 88 88 88 88 
88 88 88 88 88 88 89 89 89 
89 89 89 89 89 89 89 89 89 
89 89 89 90 90 90 90 90 90 
90 90 90 90 90 90 90 91 91 
92 92 93 93 94 94 95 95 96 
97 97 97 97 97 97 97 97 97 
97 97 97 97 97 97 97 97 97 
97 97 97 97 97 97 97 97 98 
98 99 99 100 100 100 100 100 100 
100 100 100 100 100 100 100 100 100 
100 101 101 101 101 101 101 101 101 
101 101 102 102 102 102 102 102 102 
102 102 102 102 102 102 102 102 102 
102 102 102 102 102 102 102 102 102 
102 102 102 102 103 103 104 104 104 
104 104 104 104 105 105 105 105 105 
105 105 105 105 105 105 105 105 106 
106 106 106 106 106 106 106 107 107 
108 108 108 108 108 108 108 108 108 
108 108 109 109 109 109 109 109 109 
109 109 109 109 109 109 109 109 109 
109 109 109 109 109 109 109 110 110 
110 110 110 110 110 110 111 111 111 
111 111 111 112 112 112 112 112 112 
112 112 112 112 112 112 112 112 112 
113 113 113 113 113 113 113 113 114 
114 114 114 114 114 114 114 115 115 
115 115 115 115 116 116 116 117 117 
118 118 118 118 118 118 118 118 118 
118 118 118 118 118 118 118 118 118 
118 118 118 118 118 118 118 118 118 
119 119 119 119 119 119 119 119 119 
119 119 120 120 120 120 120 120 120 
120 120 121 121 121 122 122 123 123 
124 124 124 124 124 124 124 124 124 
124 124 124 124 124 124 124 124 124 
124 124 124 124 124 124 124 124 124 
124 124 124 124 124 124 124 124 124 
124 124 124 124 125 125 125 125 125 
125 125 125 125 125 125 125 125 125 
125 125 125 125 125 125 125 125 125 
125 125 125 126 126 126 126 126 126 
126 126 126 126 126 127 127 127 127 
127 127 127 127 127 127 127 127 127 
127 127 127 127 127 127 127 127 127 
127 127 127 127 127 127 127 127 127 
127 127 127 127 127 127 127 128 128 
128 128 128 128 128 129 130 130 130 
130 130 130 130 130 130 130 130 130 
130 130 130 130 130 130 130 130 130 
130 130 130 130 130 130 130 130 130 
130 130 130 130 130 130 130 130 130 
130 130 130 130 130 130 130 130 130 
130 130 130 130 130 130 130 130 130 
130 130 130 130 130 130 130 130 130 
130 130 130 130 131 131 131 131 131 
131 131 132 132 132 132 132 132 133 
133 133 134 134 135 135 136 136 137 
137 137 137 137 137 137 137 137 137 
137 137 138 138 139 139 139 139 139 
139 139 139 139 139 139 139 139 139 
139 139 139 139 139 139 139 139 140 
140 140 140 140 140 140 140 140 140 
140 140 140 140 140 141 141 141 141 
141 141 141 141 141 141 141 141 141 
141 141 141 141 141 142 142 142 142 
142 142 143 143 143 144 144 144 144 
144 144 144 144 144 144 144 144 144 
144 144 144 144 144 144 144 144 144 
144 144 144 144 144 144 144 144 144 
144 144 144 144 144 144 144 144 144 
144 144 144 144 144 144 144 144 144 
144 144 144 144 144 144 144 145 145 
145 145 145 145 145 145 145 145 145 
145 145 145 145 145 145 145 145 145 
146 146 146 146 146 146 146 146 146 
146 146 146 146 146 146 147 147 148 
148 149 150 150 150 150 150 150 150 
150 150 150 150 150 150 150 151 151 
151 151 151 151 151 151 151 151 151 
151 151 151 151 151 151 151 151 151 
151 151 151 151 151 151 151 151 151 
151 151 151 151 151 151 151 151 151 
151 151 151 151 151 151 151 151 151 
151 151 151 151 151 151 151 151 151 
151 151 151 151 151 151 151 151 151 
151 151 151 151 151 151 151 151 151 
151 151 151 151 151 151 151 151 151 
151 151 151 151 151 151 151 151 151 
151 151 151 151 151 152 152 152 152 
152 152 152 152 152 152 152 152 152 
152 152 152 152 152 152 152 152 152 
152 152 152 152 152 152 152 152 152 
152 152 152 152 152 152 152 152 152 
152 152 152 152 152 152 152 152 152 
152 152 152 152 152 152 152 152 152 
152 152 152 152 152 152 152 152 152 
152 152 152 152 153 153 154 154 155 
155 156 156 157 157 157 157 157 157 
157 157 157 157 157 157 157 157 157 
157 157 157 157 157 157 157 157 157 
157 157 157 157 157 157 157 157 157 
157 157 157 157 157 157 157 157 157 
157 157 157 157 157 157 157 157 157 
157 157 157 157 157 157 157 157 157 
157 157 157 157 157 157 157 157 157 
157 157 157 157 157 157 157 157 157 
157 157 157 157 157 157 157 157 157 
157 157 157 157 157 157 157 157 157 
157 157 157 157 157 157 157 157 157 
157 157 157 157 157 157 157 158 158 
158 158 158 158 158 158 158 158 158 
158 158 158 158 159 159 159 159 159 
159 159 159 159 159 159 159 159 159 
160 160 160 160 160 160 161 161 162 
162 162 162 162 162 162 162 162 162 
162 162 162 162 162 162 162 162 162 
162 163 163 163 163 163 163 163 163 
163 163 163 163 163 163 163 163 163 
163 164 164 165 165 165 165 165 165 
165 165 165 165 165 165 165 165 165 
165 165 165 165 165 165 165 165 165 
165 165 165 165 165 165 165 165 165 
165 165 165 165 165 165 165 165 165 
165 165 166 166 166 166 166 166 166 
166 166 166 166 166 166 166 166 166 
166 166 166 166 166 166 166 166 166 
166 166 167 167 167 167 167 167 167 
167 167 167 167 167 167 167 167 167 
167 168 168 168 169 169 170 170 170 
170 170 170 170 170 170 170 170 170 
170 170 170 170 170 170 170 170 170 
170 170 170 170 170 170 170 170 170 
170 170 170 170 170 170 170 171 171 
171 171 171 171 171 171 171 171 171 
171 171 171 171 171 171 171 171 171 
172 172 172 172 172 172 173 173 173 
173 173 174 174 175 175 176 176 176 
176 176 176 176 176 176 176 176 176 
176 176 176 176 176 176 176 176 176 
176 176 176 176 176 176 176 176 176 
176 176 176 176 176 176 176 176 176 
176 176 176 176 176 176 176 176 176 
176 176 176 176 176 176 176 176 176 
176 176 176 176 176 176 176 176 176 
176 176 176 176 176 176 176 176 176 
176 177 177 177 177 177 177 177 177 
177 177 177 177 177 177 177 177 177 
177 177 177 177 177 177 177 177 177 
177 177 177 177 177 177 177 177 177 
177 177 177 177 177 177 177 177 177 
177 177 177 177 177 177 177 178 178 
178 178 178 178 179 179 179 179 179 
180 180 180 180 180 180 180 180 180 
180 180 180 180 180 180 180 180 180 
180 180 180 180 180 180 180 180 180 
180 180 180 180 180 180 180 180 180 
180 180 180 180 180 180 180 180 180 
181 181 181 181 181 181 181 181 181 
182 182 182 182 182 182 182 182 182 
182 182 183 183 183 183 183 183 184 
184 184 185 185 185 185 185 185 185 
185 185 185 185 185 185 185 185 185 
185 185 185 185 185 185 185 185 185 
185 185 185 185 185 185 185 185 185 
185 185 185 185 185 185 185 185 185 
185 185 185 185 185 185 185 185 186 
186 186 186 186 186 186 186 186 186 
186 186 186 186 186 186 186 186 186 
186 186 186 186 186 186 186 186 186 
186 186 186 186 187 187 187 187 187 
187 187 187 187 187 187 187 187 187 
187 188 188 188 188 188 188 188 188 
188 188 188 188 189 189 189 189 189 
189 189 189 189 190 190 190 190 190 
190 190 190 190 191 191 191 192 192 
192 193 193 194 194 194 194 194 194 
194 194 194 194 194 194 194 194 194 
194 194 194 195 195 195 195 195 195 
195 195 195 195 195 196 196 196 196 
196 196 196 196 196 196 196 197 197 
197 198 198 199 199 200 200 200 200 
200 200 200 200 200 200 200 200 200 
200 200 200 200 200 200 200 200 200 
200 200 200 200 200 201 201 201 201 
201 201 202 202 203 203 203 203 204 
204 204 205 205 205 205 205 205 205 
205 205 205 205 206 206 206 206 206 
207 207 208 208 208 208 208 208 208 
208 208 208 208 208 208 208 208 208 
208 208 208 208 208 208 208 208 208 
208 208 208 208 208 208 208 208 208 
208 208 208 208 208 208 208 208 208 
208 208 208 208 208 209 209 209 209 
209 209 209 209 209 209 209 210 210 
210 210 210 210 210 210 210 210 210 
210 210 210 210 210 210 210 210 210 
210 210 210 210 210 210 210 210 210 
210 210 210 210 210 210 210 210 210 
210 210 210 210 210 210 210 210 210 
210 210 210 210 210 210 210 210 210 
210 210 210 210 210 210 210 210 210 
210 210 210 210 210 210 210 210 210 
210 210 210 210 210 210 210 210 210 
210 210 210 210 210 211 211 211 212 
212 213 213 213 213 213 213 213 213 
213 213 213 213 213 213 213 213 213 
213 213 213 213 213 213 213 213 213 
213 213 213 213 213 213 213 213 213 
213 213 213 213 213 213 214 214 215 
215 215 215 215 215 215 215 215 215 
215 215 215 215 215 215 215 215 215 
215 215 215 215 215 215 215 215 215 
215 215 215 215 215 216 216 216 216 
216 216 216 216 216 216 216 216 217 
217 217 218 218 218 218 218 218 218 
218 218 218 218 218 218 218 218 218 
218 218 218 218 218 218 218 218 218 
219 219 219 219 219 219 219 219 219 
219 219 219 219 219 219 219 219 219 
219 219 219 219 219 219 219 219 219 
219 219 219 219 219 219 219 219 219 
219 219 220 220 220 220 220 220 220 
220 220 220 220 220 220 220 220 220 
220 221 221 221 221 221 221 221 222 
222 222 222 222 222 222 222 222 222 
222 222 222 222 222 222 222 222 222 
222 222 222 222 222 222 222 223 223 
223 223 224 224 224 224 224 224 224 
224 224 224 224 224 224 224 224 224 
224 224 224 224 224 224 224 224 224 
224 224 224 224 224 224 224 224 224 
224 224 224 224 224 224 224 224 224 
224 224 224 224 224 224 224 224 224 
224 224 224 224 224 224 224 224 225 
225 226 226 227 227 228 228 228 228 
228 228 228 228 228 228 228 228 228 
228 228 228 228 228 228 228 228 228 
228 228 228 228 228 228 228 228 228 
228 228 228 228 228 228 228 228 228 
228 228 228 228 228 228 228 228 228 
228 228 228 228 228 228 228 228 228 
228 228 228 228 228 228 228 228 228 
229 229 229 229 229 229 229 229 229 
229 230 230 230 230 230 230 230 230 
231 231 231 232 232 233 233 234 234 
234 234 234 234 234 234 234 234 234 
234 234 234 234 234 234 234 234 234 
234 234 234 234 234 234 234 234 234 
234 234 235 235 235 235 235 235 235 
235 235 235 235 235 236 236 236 236 
236 236 237 237 237 237 237 237 237 
237 237 237 237 237 237 237 237 237 
237 237 238 238 238 238 238 238 238 
238 238 238 238 238 238 238 238 238 
238 238 239 239 239 239 239 239 239 
239 239 239 239 239 239 239 239 239 
239 239 239 239 239 239 239 239 239 
239 239 239 239 239 239 239 239 239 
239 239 239 239 239 239 239 239 239 
239 239 239 239 239 239 239 239 239 
239 239 239 239 240 240 240 240 240 
240 240 240 240 240 240 240 240 240 
241 241 241 241 241 241 241 241 241 
241 241 241 242 242 242 242 242 242 
242 242 242 242 242 243 243 244 244 
245 245 245 245 245 245 245 245 245 
245 245 245 245 245 245 245 245 245 
245 246 246 246 246 246 246 246 246 
246 246 246 246 246 246 246 246 247 
247 247 247 247 247 247 247 247 247 
247 247 247 248 248 248 248 248 248 
248 248 248 248 248 249 249 249 249 
249 249 249 249 249 249 249 249 249 
249 249 249 249 249 249 249 249 249 
249 249 249 249 249 249 249 249 249 
249 249 249 249 249 249 249 250 250 
250 250 250 250 250 250 250 250 250 
250 250 250 250 250 250 250 250 250 
250 250 250 250 250 250 250 250 250 
250 250 250 250 250 250 250 250 250 
250 250 250 250 250 250 250 250 251 
251 251 251 251 251 251 252 252 252 
252 252 252 252 252 252 252 252 252 
252 252 252 252 252 252 252 252 252 
252 253 253 253 253 253 253 253 253 
253 253 254 254 254 254 254 255 255 
255 255 255 255 255 255 255 256 256 
256 256 256 256 256 257 257 257 258 
258 259 259 259 259 259 259 259 259 
259 259 259 260 260 260 260 260 260 
260 261 261 261 262 262 262 263 263 
263 264 264 265 265 265 265 265 265 
265 265 265 265 265 265 265 265 265 
265 265 265 265 265 265 265 265 265 
265 265 265 265 265 265 265 265 265 
265 265 265 265 265 265 265 265 265 
265 265 265 265 265 265 265 265 265 
265 265 265 265 265 265 265 265 266 
266 266 266 266 266 266 266 266 266 
266 266 266 266 266 266 266 266 266 
266 266 266 266 266 266 266 267 267 
267 267 267 267 267 267 267 267 267 
267 267 267 267 267 267 267 268 268 
268 268 268 268 268 268 268 268 268 
268 268 269 269 269 269 269 269 269 
269 269 269 269 269 270 270 270 270 
270 270 271 271 272 272 272 272 272 
272 272 272 272 272 272 272 272 272 
272 272 272 272 272 272 272 272 272 
272 272 272 272 272 272 272 272 272 
272 272 272 272 272 272 272 272 273 
273 273 273 273 273 273 273 273 273 
273 273 273 273 273 273 273 273 273 
273 273 273 273 273 273 273 273 273 
273 274 274 274 274 274 274 274 274 
274 274 274 274 274 274 274 274 274 
274 274 274 274 274 274 274 274 274 
274 274 275 275 275 275 276 276 276 
276 276 276 276 276 276 276 276 276 
276 276 276 276 276 277 277 277 277 
277 277 277 277 277 277 277 277 277 
277 278 278 278 278 278 278 278 278 
278 278 278 278 278 278 279 279 279 
279 279 279 279 279 279 279 279 279 
279 280 280 280 280 280 280 281 281 
281 281 281 282 282 282 282 282 283 
283 283 283 284 284 285 285 286 286 
286 286 286 286 286 286 286 286 286 
286 286 286 287 287 287 287 287 287 
287 288 288 288 288 288 288 289 289 
289 289 289 290 290 290 291 291 291 
292 292 293 293 294 294 294 294 294 
294 294 294 294 294 294 294 294 294 
294 294 294 294 294 294 294 294 294 
294 294 294 294 294 294 294 294 294 
294 294 294 294 294 294 294 295 295 
295 295 295 295 295 295 295 296 296 
296 296 296 296 296 296 296 296 296 
296 296 296 296 296 296 296 296 296 
296 296 296 296 296 296 296 296 296 
296 296 296 296 296 296 296 296 296 
296 296 296 296 296 296 296 296 296 
296 296 296 296 296 297 297 297 297 
297 297 297 297 297 297 297 297 297 
297 297 297 297 297 297 297 297 297 
297 298 298 299 299 299 299 299 299 
299 300 300 300 300 300 300 300 300 
300 300 300 300 300 300 300 301 301 
301 301 301 301 301 301 302 302 302 
302 302 302 302 302 302 302 302 302 
302 302 303 303 304 304 304 304 304 
304 304 305 305 305 305 305 305 305 
305 305 305 305 305 305 305 305 305 
305 305 305 305 305 305 305 305 305 
305 305 305 305 305 305 305 305 305 
306 306 306 306 306 306 307 307 307 
307 307 307 307 307 307 307 307 307 
307 307 307 308 308 308 308 308 308 
308 308 308 308 308 308 308 308 308 
308 308 308 308 308 308 308 308 308 
308 308 308 308 308 308 308 308 308 
308 308 308 308 308 308 308 308 308 
308 308 308 308 308 308 308 308 308 
308 308 308 308 308 308 308 308 308 
308 308 308 308 308 308 308 308 308 
308 308 308 308 308 309 309 309 309 
310 310 310 310 310 310 310 310 310 
310 310 310 310 310 310 310 310 310 
310 310 310 310 310 310 310 310 310 
310 311 311 311 311 311 311 311 312 
312 312 312 312 312 312 312 312 312 
312 312 312 312 313 313 313 313 313 
313 313 313 313 313 313 313 313 313 
313 313 313 313 313 314 314 314 314 
314 314 314 314 315 315 315 315 315 
315 316 316 316 316 316 316 317 317 
317 317 317 317 317 317 317 318 318 
318 318 318 318 318 318 318 318 318 
318 318 318 318 318 318 318 318 318 
318 318 318 318 318 318 318 318 319 
319 319 319 319 319 319 319 319 319 
319 319 319 319 319 319 319 319 319 
319 319 320 320 320 320 320 320 320 
320 320 320 320 320 320 320 321 321 
321 321 321 321 321 321 321 321 321 
321 321 321 321 321 321 321 321 321 
321 321 321 321 321 321 321 321 321 
321 321 321 321 321 322 322 322 322 
322 322 322 322 322 322 322 322 322 
322 322 322 322 322 322 322 322 322 
322 322 322 322 322 323 323 323 323 
323 323 323 323 323 323 323 323 323 
323 323 323 323 323 323 323 323 323 
323 323 323 323 323 323 323 323 323 
323 323 323 323 323 323 323 323 323 
323 323 323 323 323 323 323 323 323 
323 323 323 323 323 323 323 323 323 
323 323 324 324 324 324 324 324 324 
324 324 324 324 324 324 324 324 324 
324 324 324 324 324 324 324 324 325 
325 326 326 326 326 326 326 326 326 
326 326 326 326 326 326 326 326 326 
326 326 326 327 327 327 327 328 328 
328 329 329 330 330 330 330 330 330 
330 330 330 331 332 333 333 333 333 
333 333 333 333 333 333 333 333 333 
333 334 334 334 334 334 334 334 334 
334 335 335 335 335 335 335 335 335 
335 335 335 335 335 336 336 336 336 
336 336 336 336 336 336 337 337 337 
337 337 337 337 337 337 337 337 337 
338 338 338 338 338 338 338 338 338 
338 339 340 340 340 340 340 340 340 
340 340 340 340 340 340 340 340 340 
340 340 340 340 340 340 340 340 340 
340 340 340 340 340 340 340 340 340 
340 340 340 340 340 340 340 340 340 
340 341 341 341 341 341 341 341 341 
341 341 341 341 341 341 341 341 341 
341 341 341 341 341 341 342 342 342 
342 342 342 342 342 342 342 342 342 
342 342 342 342 342 342 343 343 343 
344 344 345 346 346 346 346 347 347 
347 348 348 348 349 349 349 350 350 
351 351 352 352 353 353 353 353 353 
353 353 353 353 353 353 353 353 353 
353 353 353 353 353 353 353 354 354 
354 354 355 355 355 355 355 355 355 
355 355 356 356 356 356 356 357 357 
357 357 357 357 357 357 357 357 357 
357 357 357 358 358 358 358 358 358 
358 359 359 359 359 359 359 359 359 
359 359 359 360 360 361 361 362 362 
362 362 362 363 363 364 364 364 364 
364 364 364 365 365 365 365 365 365 
365 365 365 
POINT_DATA 5228
SCALARS %20Zcoord float
LOOKUP_TABLE default
255 255 255 255 255 255 255 255 255 
255 255 255 255 255 255 255 255 255 
255 255 255 255 255 255 255 255 255 
255 255 255 255 255 255 255 255 255 
255 255 255 255 255 255 255 255 255 
255 255 255 255 255 255 255 255 255 
255 255 255 255 255 255 255 255 255 
255 255 255 255 255 255 255 255 255 
255 255 255 255 255 255 255 255 255 
255 255 255 255 255 255 255 255 255 
255 255 255 255 255 255 255 255 255 
255 255 255 255 255 255 255 255 255 
255 255 255 255 255 255 255 255 255 
255 255 255 255 255 255 255 255 255 
255 255 255 255 255 255 255 255 255 
255 255 255 255 255 255 255 255 255 
255 255 255 255 255 255 255 255 255 
255 255 255 255 255 255 255 255 255 
255 255 255 255 255 255 255 255 255 
255 255 255 255 255 255 255 255 255 
255 255 255 255 255 255 255 255 255 
255 255 255 255 255 255 255 255 255 
255 255 255 255 255 255 255 255 255 
255 255 255 255 255 255 255 255 255 
255 255 255 255 255 255 255 255 255 
255 255 255 255 255 255 255 255 255 